Siesta Version  : master-post-4.1-268
Architecture    : x86_64_MPI
Compiler version: GNU Fortran (GCC) 8.3.0
Compiler flags  : mpif90 -O2 -fPIC -ftree-vectorize -march=native
PP flags        : -DFC_HAVE_ABORT -DMPI -DSIESTA__FLOOK -DCDF -DNCDF -DNCDF_4
Libraries       :  libfdict.a libncdf.a libfdict.a  -lflookall -ldl -lnetcdff -lnetcdf -lhdf5_hhl -lhdf5 -lz -lmkl_scalapack_lp64 -lmkl_gf_lp64 -lmkl_sequential -lmkl_core -lmkl_blacs_intelmpi_lp64 -lpthread -lm -ldl
Directory       : /home/bruno/hBN_23-24/Analisis_P_cluster/NH3_Amador/Prueba_Amador_2
PARALLEL version
NetCDF support
NetCDF-4 support
Lua support

* Running on 20 nodes in parallel
>> Start of run:  19-SEP-2024  12:46:42

                           ***********************       
                           *  WELCOME TO SIESTA  *       
                           ***********************       
# Name
#########################
SystemName             NH3
SystemLabel            NH3

# Structure
#########################
NumberOfAtoms          4
NumberOfSpecies        2
%block Chemical_Species_label
    1   1  H  
    2   7  N
%endblock Chemical_Species_label
LatticeConstant  20.02 Ang
%block LatticeVectors
   1.000    0.0000     0.000000
   0.000     1.00000     0.000000
    0.000000     0.000000    1.000000
%endblock LatticeVectors
AtomicCoordinatesFormat Ang
%block AtomicCoordinatesAndAtomicSpecies < coord.fdf

# Basis
#########################
PAO.BasisSize      DZP
%block PAO.Basis
N                     2
 n=2   0   2
   8.0    3.05
 n=2   1   2 P   1
   8.0    2.85
%endblock PAO.Basis
# K-points
#########################
%block kgrid_Monkhorst_Pack
  1   0   0    0.0
  0   1   0    0.0
  0   0   1    0.0
%endblock kgrid_Monkhorst_Pack

# SCF options
#########################
XC.functional           GGA
XC.authors              PBE
MeshCutoff              1000.0 Ry
MaxSCFIterations        1000
SCF.Mixer.Weight        0.01
SCF.Mixer.History       10
SCF.DM.Tolerance        1.d-4
SCF.H.Tolerance         1.d-4 eV
SolutionMethod          diagon
ElectronicTemperature   10 K
Spin polarized
# Molecular dynamics and relaxations

MD.TypeOfRun            cg          
MD.NumCGsteps        1
MD.MaxCGDispl        0.005  Ang
MD.MaxForceTol       18.0 eV/Ang
WriteCoorStep 		T

# GRID
# --------------
GridCellSampling [ 2 2 2 ]

#########################

#Output options
#########################
WriteCoorStep          T
WriteForces            T
WriteMullikenPop       1
WriteCoorXmol          T


# Restart
#########################
DM.UseSaveDM           T
MD.UseSaveXV           T
SaveHS                 T

Write.DM.NetCDF        T
Write.DMHS.NetCDF      T
CDF.Grid.Precision    double
CDF.Save               T


reinit: Reading from NH3.fdf

reinit: -----------------------------------------------------------------------
reinit: System Name: NH3
reinit: -----------------------------------------------------------------------
reinit: System Label: NH3
reinit: -----------------------------------------------------------------------

initatom: Reading input for the pseudopotentials and atomic orbitals ----------
Species number:   1 Atomic number:    1 Label: H
Species number:   2 Atomic number:    7 Label: N

Ground state valence configuration:   1s01
Reading pseudopotential information in formatted form from H.psf

Valence configuration for pseudopotential generation:
1s( 1.00) rc: 1.31
2p( 0.00) rc: 1.31
3d( 0.00) rc: 0.37
4f( 0.00) rc: 1.31
Ground state valence configuration:   2s02  2p03
Reading pseudopotential information in formatted form from N.psf

Valence configuration for pseudopotential generation:
2s( 2.00) rc: 1.48
2p( 3.00) rc: 1.48
3d( 0.00) rc: 1.48
4f( 0.00) rc: 1.48
For H, standard SIESTA heuristics set lmxkb to 2
 (one more than the basis l, including polarization orbitals).
Use PS.lmax or PS.KBprojectors blocks to override.
For N, standard SIESTA heuristics set lmxkb to 3
 (one more than the basis l, including polarization orbitals).
Use PS.lmax or PS.KBprojectors blocks to override.

<basis_specs>
===============================================================================
H                    Z=   1    Mass=  1.0100        Charge= 0.17977+309
Lmxo=0 Lmxkb= 2    BasisType=split      Semic=F
L=0  Nsemic=0  Cnfigmx=1
          i=1  nzeta=2  polorb=1  (1s)
            splnorm:   0.15000    
               vcte:    0.0000    
               rinn:    0.0000    
               qcoe:    0.0000    
               qyuk:    0.0000    
               qwid:   0.10000E-01
                rcs:    0.0000      0.0000    
            lambdas:    1.0000      1.0000    
-------------------------------------------------------------------------------
L=0  Nkbl=1  erefs: 0.17977+309
L=1  Nkbl=1  erefs: 0.17977+309
L=2  Nkbl=1  erefs: 0.17977+309
===============================================================================
</basis_specs>

atom: Called for H                     (Z =   1)

read_vps: Pseudopotential generation method:
read_vps: ATM3      Troullier-Martins                       
Valence charge for ps generation:    1.00000

xc_check: Exchange-correlation functional:
xc_check: GGA Perdew, Burke & Ernzerhof 1996
V l=0 = -2*Zval/r beyond r=  1.2977
V l=1 = -2*Zval/r beyond r=  1.2815
V l=2 = -2*Zval/r beyond r=  1.2656
All V_l potentials equal beyond r=  1.2977
This should be close to max(r_c) in ps generation
All pots = -2*Zval/r beyond r=  1.2977

VLOCAL1: 99.0% of the norm of Vloc inside     25.776 Ry
VLOCAL1: 99.9% of the norm of Vloc inside     58.745 Ry
atom: Maximum radius for 4*pi*r*r*local-pseudopot. charge    1.52711
atom: Maximum radius for r*vlocal+2*Zval:    1.28155

KBgen: Kleinman-Bylander projectors: 
GHOST: No ghost state for L =  0
   l= 0   rc=  1.434438   el= -0.477200   Ekb= -1.957043   kbcos= -0.361614
GHOST: No ghost state for L =  1
   l= 1   rc=  1.508111   el=  0.001076   Ekb= -0.424224   kbcos= -0.025441
GHOST: No ghost state for L =  2
   l= 2   rc=  1.527112   el=  0.002010   Ekb= -0.378578   kbcos= -0.002010

KBgen: Total number of  Kleinman-Bylander projectors:    9
atom: -------------------------------------------------------------------------

atom: SANKEY-TYPE ORBITALS:
atom: Selected multiple-zeta basis: split     

SPLIT: Orbitals with angular momentum L= 0

SPLIT: Basis orbitals for state 1s

SPLIT: PAO cut-off radius determined from an
SPLIT: energy shift=  0.020000 Ry

   izeta = 1
                 lambda =    1.000000
                     rc =    4.708991
                 energy =   -0.457754
                kinetic =    0.977134
    potential(screened) =   -1.434888
       potential(ionic) =   -1.963073

   izeta = 2
                 rmatch =    3.759707
              splitnorm =    0.150000
                 energy =   -0.338984
                kinetic =    1.577812
    potential(screened) =   -1.916796
       potential(ionic) =   -2.466983

POLgen: Perturbative polarization orbital with L=  1

POLgen: Polarization orbital for state 1s

   izeta = 1
                     rc =    4.708991
                 energy =    0.764959
                kinetic =    1.478379
    potential(screened) =   -0.713420
       potential(ionic) =   -1.205754
atom: Total number of Sankey-type orbitals:  5

atm_pop: Valence configuration (for local Pseudopot. screening):
 1s( 1.00)                                                            
Vna: chval, zval:    1.00000   1.00000

Vna:  Cut-off radius for the neutral-atom potential:   4.708991

atom: _________________________________________________________________________

<basis_specs>
===============================================================================
N                    Z=   7    Mass=  14.010        Charge= 0.17977+309
Lmxo=1 Lmxkb= 3    BasisType=split      Semic=F
L=0  Nsemic=0  Cnfigmx=2
          i=1  nzeta=2  polorb=0  (2s)
            splnorm:   0.15000    
               vcte:    0.0000    
               rinn:    0.0000    
               qcoe:    0.0000    
               qyuk:    0.0000    
               qwid:   0.10000E-01
                rcs:    8.0000      3.0500    
            lambdas:    1.0000      1.0000    
L=1  Nsemic=0  Cnfigmx=2
          i=1  nzeta=2  polorb=1  (2p)
            splnorm:   0.15000    
               vcte:    0.0000    
               rinn:    0.0000    
               qcoe:    0.0000    
               qyuk:    0.0000    
               qwid:   0.10000E-01
                rcs:    8.0000      2.8500    
            lambdas:    1.0000      1.0000    
-------------------------------------------------------------------------------
L=0  Nkbl=1  erefs: 0.17977+309
L=1  Nkbl=1  erefs: 0.17977+309
L=2  Nkbl=1  erefs: 0.17977+309
L=3  Nkbl=1  erefs: 0.17977+309
===============================================================================
</basis_specs>

atom: Called for N                     (Z =   7)

read_vps: Pseudopotential generation method:
read_vps: ATM3      Troullier-Martins                       
Valence charge for ps generation:    5.00000

read_vps: Pseudopotential includes a core correction:
read_vps: Pseudo-core for xc-correction

xc_check: Exchange-correlation functional:
xc_check: GGA Perdew, Burke & Ernzerhof 1996
V l=0 = -2*Zval/r beyond r=  1.4606
V l=1 = -2*Zval/r beyond r=  1.4606
V l=2 = -2*Zval/r beyond r=  1.4606
V l=3 = -2*Zval/r beyond r=  1.4606
All V_l potentials equal beyond r=  1.4606
This should be close to max(r_c) in ps generation
All pots = -2*Zval/r beyond r=  1.4606

VLOCAL1: 99.0% of the norm of Vloc inside     20.347 Ry
VLOCAL1: 99.9% of the norm of Vloc inside     46.372 Ry
atom: Maximum radius for 4*pi*r*r*local-pseudopot. charge    1.76189
atom: Maximum radius for r*vlocal+2*Zval:    1.53550

KBgen: Kleinman-Bylander projectors: 
GHOST: No ghost state for L =  0
   l= 0   rc=  1.634559   el= -1.363963   Ekb=  5.296955   kbcos=  0.335621
GHOST: No ghost state for L =  1
   l= 1   rc=  1.614250   el= -0.521451   Ekb= -5.259161   kbcos= -0.433408
GHOST: No ghost state for L =  2
   l= 2   rc=  1.718383   el=  0.001991   Ekb= -1.271464   kbcos= -0.007566
GHOST: No ghost state for L =  3
   l= 3   rc=  1.761893   el=  0.003093   Ekb= -0.494769   kbcos= -0.001015

KBgen: Total number of  Kleinman-Bylander projectors:   16
atom: -------------------------------------------------------------------------

atom: SANKEY-TYPE ORBITALS:
atom: Selected multiple-zeta basis: split     

SPLIT: Orbitals with angular momentum L= 0

SPLIT: Basis orbitals for state 2s

   izeta = 1
                 lambda =    1.000000
                     rc =    7.996833
                 energy =   -1.364010
                kinetic =    1.136085
    potential(screened) =   -2.500095
       potential(ionic) =   -7.986119

   izeta = 2
                 rmatch =    3.092486
              splitnorm =    0.121817
                 energy =   -1.216748
                kinetic =    1.689010
    potential(screened) =   -2.905759
       potential(ionic) =   -8.777692

SPLIT: Orbitals with angular momentum L= 1

SPLIT: Basis orbitals for state 2p

   izeta = 1
                 lambda =    1.000000
                     rc =    7.996833
                 energy =   -0.521398
                kinetic =    3.322559
    potential(screened) =   -3.843957
       potential(ionic) =   -9.098610

   izeta = 2
                 rmatch =    2.869008
              splitnorm =    0.206117
                 energy =   -0.255528
                kinetic =    5.443842
    potential(screened) =   -5.699370
       potential(ionic) =  -11.710588

POLgen: Perturbative polarization orbital with L=  2

POLgen: Polarization orbital for state 2p

   izeta = 1
                     rc =    7.996833
                 energy =    1.327113
                kinetic =    2.751999
    potential(screened) =   -1.424886
       potential(ionic) =   -5.435871
atom: Total number of Sankey-type orbitals: 13

atm_pop: Valence configuration (for local Pseudopot. screening):
 2s( 2.00)                                                            
 2p( 3.00)                                                            
Vna: chval, zval:    5.00000   5.00000

Vna:  Cut-off radius for the neutral-atom potential:   7.996833
comcore: Pseudo-core radius Rcore=  1.554824

atom: _________________________________________________________________________

prinput: Basis input ----------------------------------------------------------

PAO.BasisType split     

%block ChemicalSpeciesLabel
    1    1 H                       # Species index, atomic number, species label
    2    7 N                       # Species index, atomic number, species label
%endblock ChemicalSpeciesLabel

%block PAO.Basis                 # Define Basis set
H                     1                    # Species label, number of l-shells
 n=1   0   2 P   1                   # n, l, Nzeta, Polarization, NzetaPol
   4.709      3.760   
   1.000      1.000   
N                     2                    # Species label, number of l-shells
 n=2   0   2                         # n, l, Nzeta 
   7.997      3.092   
   1.000      1.000   
 n=2   1   2 P   1                   # n, l, Nzeta, Polarization, NzetaPol
   7.997      2.869   
   1.000      1.000   
%endblock PAO.Basis

prinput: ----------------------------------------------------------------------

Dumping basis to NetCDF file H.ion.nc
Dumping basis to NetCDF file N.ion.nc
coor:   Atomic-coordinates input format  =     Cartesian coordinates
coor:                                          (in Angstroms)

siesta: WARNING: XV file not found

siesta: Atomic coordinates (Bohr) and species
siesta:      0.00000   0.00000   0.00000  2        1
siesta:      0.00000   0.00000  -1.94434  1        2
siesta:      1.68394   0.00000   0.97208  1        3
siesta:     -1.68394   0.00000   0.97208  1        4

siesta: System type = molecule  

initatomlists: Number of atoms, orbitals, and projectors:      4    28    43

coxmol: Writing XMOL coordinates into file NH3.xyz                                                             

siesta: ******************** Simulation parameters ****************************
siesta:
siesta: The following are some of the parameters of the simulation.
siesta: A complete list of the parameters used, including default values,
siesta: can be found in file out.fdf
siesta:
redata: Spin configuration                          = collinear
redata: Number of spin components                   = 2
redata: Time-Reversal Symmetry                      = T
redata: Spin spiral                                 = F
redata: Long output                                 =   F
redata: Number of Atomic Species                    =        2
redata: Charge density info will appear in .RHO file
redata: Write Mulliken Pop.                         = Atomic and Orbital charges
redata: Matel table size (NRTAB)                    =     1024
redata: Mesh Cutoff                                 =  1000.0000 Ry
redata: Net charge of the system                    =     0.0000 |e|
redata: Min. number of SCF Iter                     =        0
redata: Max. number of SCF Iter                     =     1000
redata: SCF convergence failure will abort job
redata: SCF mix quantity                            = Hamiltonian
redata: Mix DM or H after convergence               =   F
redata: Recompute H after scf cycle                 =   F
redata: Mix DM in first SCF step                    =   T
redata: Write Pulay info on disk                    =   F
redata: New DM Occupancy tolerance                  = 0.000000000001
redata: No kicks to SCF
redata: DM Mixing Weight for Kicks                  =     0.5000
redata: Require Harris convergence for SCF          =   F
redata: Harris energy tolerance for SCF             =     0.000100 eV
redata: Require DM convergence for SCF              =   T
redata: DM tolerance for SCF                        =     0.000100
redata: Require EDM convergence for SCF             =   F
redata: EDM tolerance for SCF                       =     0.001000 eV
redata: Require H convergence for SCF               =   T
redata: Hamiltonian tolerance for SCF               =     0.000100 eV
redata: Require (free) Energy convergence for SCF   =   F
redata: (free) Energy tolerance for SCF             =     0.000100 eV
redata: Antiferro initial spin density              =   F
redata: Using Saved Data (generic)                  =   F
redata: Use continuation files for DM               =   T
redata: Neglect nonoverlap interactions             =   F
redata: Method of Calculation                       = Diagonalization
redata: Electronic Temperature                      =     9.9999 K
redata: Fix the spin of the system                  =   F
redata: Max. number of TDED Iter                    =        1
redata: Number of TDED substeps                     =        3
redata: Dynamics option                             = CG coord. optimization
redata: Variable cell                               =   F
redata: Use continuation files for CG               =   F
redata: Max atomic displ per move                   =     0.0050 Ang
redata: Maximum number of optimization moves        =        1
redata: Force tolerance                             =    18.0000 eV/Ang
mix.SCF: Pulay mixing                            = Pulay
mix.SCF:    Variant                              = stable
mix.SCF:    History steps                        = 10
mix.SCF:    Linear mixing weight                 =     0.010000
mix.SCF:    Mixing weight                        =     0.010000
mix.SCF:    SVD condition                        = 0.1000E-07
mix.SCF: Spin-component mixing                   all
redata: Save all siesta data in one NC              =   F
redata: ***********************************************************************

%block SCF.Mixers
  Pulay
%endblock SCF.Mixers

%block SCF.Mixer.Pulay
  # Mixing method
  method pulay
  variant stable

  # Mixing options
  weight 0.0100
  weight.linear 0.0100
  history 10
%endblock SCF.Mixer.Pulay

DM_history_depth set to one: no extrapolation allowed by default for geometry relaxation
Size of DM history Fstack: 1
Total number of electrons:     8.000000
Total ionic charge:     8.000000

* ProcessorY, Blocksize:    5   1


* Orbital distribution balance (max,min):     2     1

 Kpoints in:            1 . Kpoints trimmed:            1

siesta: k-grid: Number of k-points =         1
siesta: k-points from Monkhorst-Pack grid
siesta: k-cutoff (effective) =    10.010 Ang
siesta: k-point supercell and displacements
siesta: k-grid:    1   0   0      0.000
siesta: k-grid:    0   1   0      0.000
siesta: k-grid:    0   0   1      0.000

diag: Algorithm                                     = D&C
diag: Parallel over k                               =   F
diag: Use parallel 2D distribution                  =   T
diag: Parallel block-size                           = 1
diag: Parallel distribution                         =     4 x     5
diag: Used triangular part                          = Lower
diag: Absolute tolerance                            =  0.100E-15
diag: Orthogonalization factor                      =  0.100E-05
diag: Memory factor                                 =  1.0000


ts: **************************************************************
ts: Save H and S matrices                           =    F
ts: Save DM and EDM matrices                        =    F
ts: Only save the overlap matrix S                  =    F
ts: **************************************************************

************************ Begin: TS CHECKS AND WARNINGS ************************
************************ End: TS CHECKS AND WARNINGS **************************


                     ====================================
                        Begin CG opt. move =      0
                     ====================================

outcoor: Atomic coordinates (Ang):                          
    0.00000000    0.00000000    0.00000000   2       1  N
    0.00000000    0.00000000   -1.02890000   1       2  H
    0.89110000    0.00000000    0.51440000   1       3  H
   -0.89110000    0.00000000    0.51440000   1       4  H

outcell: Unit cell vectors (Ang):
       20.020000    0.000000    0.000000
        0.000000   20.020000    0.000000
        0.000000    0.000000   20.020000

outcell: Cell vector modules (Ang)   :   20.020000   20.020000   20.020000
outcell: Cell angles (23,13,12) (deg):     90.0000     90.0000     90.0000
outcell: Cell volume (Ang**3)        :   8024.0240
<dSpData1D:S at geom step 0
  <sparsity:sparsity for geom step 0
    nrows_g=28 nrows=2 sparsity=.0714 nnzs=56, refcount: 7>
  <dData1D:(new from dSpData1D) n=56, refcount: 1>
refcount: 1>
new_DM -- step:     1
Initializing Density Matrix...

Attempting to read DM from file... Failed...
DM filled with atomic data:
<dSpData2D:DM initialized from atoms
  <sparsity:sparsity for geom step 0
    nrows_g=28 nrows=2 sparsity=.0714 nnzs=56, refcount: 8>
  <dData2D:DM n=56 m=2, refcount: 1>
refcount: 1>
     spin moment: S , {S} =    6.00000       0.0       0.0   6.00000
No. of atoms with KB's overlaping orbs in proc 0. Max # of overlaps:       4      28

InitMesh: MESH = 384 x 384 x 384 = 56623104
InitMesh: Mesh cutoff (required, used) =  1000.000  1016.801 Ry
New grid distribution [1]: sub = 2
New grid distribution [2]: sub = 2
New grid distribution [3]: sub = 2
Setting up quadratic distribution...

stepf: Fermi-Dirac step function

siesta: Program's energy decomposition (eV):
siesta: Ebs     =       -50.374574
siesta: Eions   =       472.577265
siesta: Ena     =        83.811216
siesta: Ekin    =       274.166834
siesta: Enl     =       -66.201674
siesta: Eso     =         0.000000
siesta: Edftu   =         0.000000
siesta: DEna    =       -34.425583
siesta: DUscf   =         7.942537
siesta: DUext   =         0.000000
siesta: Exc     =      -117.127848
siesta: eta*DQ  =         0.000000
siesta: Emadel  =         0.000000
siesta: Emeta   =         0.000000
siesta: Emolmec =         0.000000
siesta: Ekinion =         0.000000
siesta: Eharris =      -320.133069
siesta: Etot    =      -324.411784
siesta: FreeEng =      -324.411784

        iscf     Eharris(eV)        E_KS(eV)     FreeEng(eV)     dDmax    Ef(eV) dHmax(eV)
   scf:    1     -320.133069     -324.411784     -324.411784  0.992263 -5.700287 16.380477
     spin moment: S , {S} =   -0.00000       0.0       0.0  -0.00000
timer: Routine,Calls,Time,% = IterSCF        1      16.306  66.69
   scf:    2     -324.779176     -324.596157     -324.596157  0.005860 -5.589735 16.022660
     spin moment: S , {S} =   -0.00000       0.0       0.0  -0.00000
   scf:    3     -329.358869     -328.315872     -328.315872  0.289711 -1.072720  2.907393
     spin moment: S , {S} =   -0.00000       0.0       0.0  -0.00000
   scf:    4     -311.425761     -321.685089     -321.685089  0.367652 -0.047947 18.267786
     spin moment: S , {S} =   -0.00000       0.0       0.0  -0.00000
   scf:    5     -327.739560     -327.993624     -327.993624  0.561531 -1.364403  4.528698
     spin moment: S , {S} =   -0.00000       0.0       0.0  -0.00000
   scf:    6     -328.363375     -328.393321     -328.393321  0.117947  0.023410  1.246039
     spin moment: S , {S} =   -0.00000       0.0       0.0  -0.00000
   scf:    7     -328.425757     -328.410663     -328.410663  0.009802 -0.081240  0.851173
     spin moment: S , {S} =   -0.00000       0.0       0.0  -0.00000
   scf:    8     -328.423596     -328.424494     -328.424494  0.040339 -0.294402  0.273836
     spin moment: S , {S} =   -0.00000       0.0       0.0  -0.00000
mix: Pulay -- inversion failed, > SVD [rank/size] 5 / 7
   scf:    9     -328.426938     -328.426052     -328.426052  0.004609 -0.241164  0.050980
     spin moment: S , {S} =   -0.00000       0.0       0.0  -0.00000
mix: Pulay -- inversion failed, > SVD [rank/size] 5 / 8
   scf:   10     -328.426054     -328.426053     -328.426053  0.000009 -0.241133  0.050556
     spin moment: S , {S} =   -0.00000       0.0       0.0  -0.00000
mix: Pulay -- inversion failed, > SVD [rank/size] 5 / 9
   scf:   11     -328.426056     -328.426054     -328.426054  0.000007 -0.241045  0.049926
     spin moment: S , {S} =   -0.00000       0.0       0.0  -0.00000
mix: Pulay -- inversion failed, > SVD [rank/size] 5 / 9
   scf:   12     -328.426058     -328.426056     -328.426056  0.000009 -0.240902  0.049079
     spin moment: S , {S} =   -0.00000       0.0       0.0  -0.00000
mix: Pulay -- inversion failed, > SVD [rank/size] 4 / 9
   scf:   13     -328.426115     -328.426102     -328.426102  0.001666 -0.229490  0.014008
     spin moment: S , {S} =   -0.00000       0.0       0.0  -0.00000
mix: Pulay -- inversion failed, > SVD [rank/size] 3 / 9
   scf:   14     -328.426089     -328.426095     -328.426095  0.000904 -0.232675  0.014907
     spin moment: S , {S} =   -0.00000       0.0       0.0  -0.00000
mix: Pulay -- inversion failed, > SVD [rank/size] 3 / 9
   scf:   15     -328.426097     -328.426096     -328.426096  0.000069 -0.232954  0.014623
     spin moment: S , {S} =   -0.00000       0.0       0.0  -0.00000
mix: Pulay -- inversion failed, > SVD [rank/size] 4 / 9
   scf:   16     -328.426129     -328.426112     -328.426112  0.002427 -0.234508  0.004180
     spin moment: S , {S} =   -0.00000       0.0       0.0  -0.00000
mix: Pulay -- inversion failed, > SVD [rank/size] 4 / 9
   scf:   17     -328.426112     -328.426112     -328.426112  0.000108 -0.235251  0.001574
     spin moment: S , {S} =   -0.00000       0.0       0.0  -0.00000
mix: Pulay -- inversion failed, > SVD [rank/size] 4 / 9
   scf:   18     -328.426112     -328.426112     -328.426112  0.000001 -0.235248  0.001565
     spin moment: S , {S} =   -0.00000       0.0       0.0  -0.00000
mix: Pulay -- inversion failed, > SVD [rank/size] 5 / 9
   scf:   19     -328.426113     -328.426112     -328.426112  0.000122 -0.235121  0.000101
     spin moment: S , {S} =    0.00000       0.0       0.0   0.00000
mix: Pulay -- inversion failed, > SVD [rank/size] 5 / 9
   scf:   20     -328.426112     -328.426112     -328.426112  0.000001 -0.235123  0.000114
     spin moment: S , {S} =    0.00000       0.0       0.0   0.00000
mix: Pulay -- inversion failed, > SVD [rank/size] 5 / 9
   scf:   21     -328.426112     -328.426112     -328.426112  0.000000 -0.235123  0.000113
     spin moment: S , {S} =    0.00000       0.0       0.0   0.00000
mix: Pulay -- inversion failed, > SVD [rank/size] 5 / 9
   scf:   22     -328.426112     -328.426112     -328.426112  0.000000 -0.235123  0.000112
     spin moment: S , {S} =    0.00000       0.0       0.0   0.00000
mix: Pulay -- inversion failed, > SVD [rank/size] 6 / 9
   scf:   23     -328.426112     -328.426112     -328.426112  0.000016 -0.235136  0.000030
     spin moment: S , {S} =    0.00000       0.0       0.0   0.00000

SCF Convergence by DM+H criterion
max |DM_out - DM_in|         :     0.0000157816
max |H_out - H_in|      (eV) :     0.0000299432
SCF cycle converged after 23 iterations

Using DM_out to compute the final energy and forces
No. of atoms with KB's overlaping orbs in proc 0. Max # of overlaps:       4      28

grdsam: Reading Grid.CellSampling list
grdsam: Grid-cell sampling: 0 / 7
grdsam: Grid-cell sampling: 1 / 7

InitMesh: MESH = 384 x 384 x 384 = 56623104
InitMesh: Mesh cutoff (required, used) =  1000.000  1016.801 Ry
New grid distribution [1]: sub = 2
New grid distribution [2]: sub = 2
New grid distribution [3]: sub = 2
Setting up quadratic distribution...
grdsam: Grid-cell sampling: 2 / 7

InitMesh: MESH = 384 x 384 x 384 = 56623104
InitMesh: Mesh cutoff (required, used) =  1000.000  1016.801 Ry
New grid distribution [1]: sub = 2
New grid distribution [2]: sub = 2
New grid distribution [3]: sub = 2
Setting up quadratic distribution...
grdsam: Grid-cell sampling: 3 / 7

InitMesh: MESH = 384 x 384 x 384 = 56623104
InitMesh: Mesh cutoff (required, used) =  1000.000  1016.801 Ry
New grid distribution [1]: sub = 2
New grid distribution [2]: sub = 2
New grid distribution [3]: sub = 2
Setting up quadratic distribution...
grdsam: Grid-cell sampling: 4 / 7

InitMesh: MESH = 384 x 384 x 384 = 56623104
InitMesh: Mesh cutoff (required, used) =  1000.000  1016.801 Ry
New grid distribution [1]: sub = 2
New grid distribution [2]: sub = 2
New grid distribution [3]: sub = 2
Setting up quadratic distribution...
grdsam: Grid-cell sampling: 5 / 7

InitMesh: MESH = 384 x 384 x 384 = 56623104
InitMesh: Mesh cutoff (required, used) =  1000.000  1016.801 Ry
New grid distribution [1]: sub = 2
New grid distribution [2]: sub = 2
New grid distribution [3]: sub = 2
Setting up quadratic distribution...
grdsam: Grid-cell sampling: 6 / 7

InitMesh: MESH = 384 x 384 x 384 = 56623104
InitMesh: Mesh cutoff (required, used) =  1000.000  1016.801 Ry
New grid distribution [1]: sub = 2
New grid distribution [2]: sub = 2
New grid distribution [3]: sub = 2
Setting up quadratic distribution...
grdsam: Grid-cell sampling: 7 / 7

InitMesh: MESH = 384 x 384 x 384 = 56623104
InitMesh: Mesh cutoff (required, used) =  1000.000  1016.801 Ry
New grid distribution [1]: sub = 2
New grid distribution [2]: sub = 2
New grid distribution [3]: sub = 2
Setting up quadratic distribution...

grdsam: Max (sampled force - avg. force):   0.000239   0.000000   0.000194 eV/Ang
grdsam: Standard deviation of sampled force:   0.000098   0.000000   0.000095 eV/Ang
grdsam: Max (sampled stress - avg. stress):  -0.000061 kbar


InitMesh: MESH = 384 x 384 x 384 = 56623104
InitMesh: Mesh cutoff (required, used) =  1000.000  1016.801 Ry
New grid distribution [1]: sub = 2
New grid distribution [2]: sub = 2
New grid distribution [3]: sub = 2
Setting up quadratic distribution...

siesta: E_KS(eV) =             -328.4261

siesta: E_KS - E_eggbox =      -328.4261
     spin moment: S , {S} =    0.00000       0.0       0.0   0.00000

siesta: Atomic forces (eV/Ang):
     1   -0.000000    0.000000   -0.000101
     2   -0.000000   -0.000000    0.814766
     3   -0.706539   -0.000000   -0.407308
     4    0.706539   -0.000000   -0.407308
----------------------------------------
   Tot   -0.000000    0.000000    0.000049
----------------------------------------
   Max    0.814766
   Res    0.407639    sqrt( Sum f_i^2 / 3N )
----------------------------------------
   Max    0.814766    constrained

Stress tensor Voigt[x,y,z,yz,xz,xy] (kbar):        0.25        0.00        0.25       -0.00        0.00        0.00
(Free)E + p*V (eV/cell)     -329.2648
Target enthalpy (eV/cell)     -328.4261

mulliken: Atomic and Orbital Populations:

mulliken: Spin UP 

Species: H                   
Atom  Qatom  Qorb
               1s      1s      2Ppy    2Ppz    2Ppx    
   2  0.558   0.253   0.229   0.031   0.026   0.018
   3  0.558   0.253   0.229   0.031   0.020   0.024
   4  0.558   0.253   0.229   0.031   0.020   0.024

Species: N                   
Atom  Qatom  Qorb
               2s      2s      2py     2pz     2px     2py     2pz     2px     
               3Pdxy   3Pdyz   3Pdz2   3Pdxz   3Pdx2-y2
   1  2.327  -0.037   0.495   0.932   0.206   0.206  -0.026   0.271   0.271
              0.000   0.000   0.003   0.004   0.001

mulliken: Qtot =        4.000

mulliken: Spin DOWN 

Species: H                   
Atom  Qatom  Qorb
               1s      1s      2Ppy    2Ppz    2Ppx    
   2  0.558   0.253   0.229   0.031   0.026   0.018
   3  0.558   0.253   0.229   0.031   0.020   0.024
   4  0.558   0.253   0.229   0.031   0.020   0.024

Species: N                   
Atom  Qatom  Qorb
               2s      2s      2py     2pz     2px     2py     2pz     2px     
               3Pdxy   3Pdyz   3Pdz2   3Pdxz   3Pdx2-y2
   1  2.327  -0.037   0.495   0.932   0.206   0.206  -0.026   0.271   0.271
              0.000   0.000   0.003   0.004   0.001

mulliken: Qtot =        4.000

cgvc: Finished line minimization    1.  Mean atomic displacement =    0.0000

outcoor: Relaxed atomic coordinates (Ang):                  
    0.00000000    0.00000000    0.00000000   2       1  N
    0.00000000    0.00000000   -1.02890000   1       2  H
    0.89110000    0.00000000    0.51440000   1       3  H
   -0.89110000    0.00000000    0.51440000   1       4  H

coxmol: Writing XMOL coordinates into file NH3.xyz                                                             

siesta: Program's energy decomposition (eV):
siesta: Ebs     =       -96.175457
siesta: Eions   =       472.577265
siesta: Ena     =        83.811216
siesta: Ekin    =       235.895031
siesta: Enl     =       -56.538541
siesta: Eso     =         0.000000
siesta: Edftu   =         0.000000
siesta: DEna    =       -11.700141
siesta: DUscf   =         1.768958
siesta: DUext   =         0.000000
siesta: Exc     =      -109.085370
siesta: eta*DQ  =         0.000000
siesta: Emadel  =         0.000000
siesta: Emeta   =         0.000000
siesta: Emolmec =         0.000000
siesta: Ekinion =         0.000000
siesta: Eharris =      -328.426112
siesta: Etot    =      -328.426113
siesta: FreeEng =      -328.426113

siesta: Final energy (eV):
siesta:  Band Struct. =     -96.175457
siesta:       Kinetic =     235.895031
siesta:       Hartree =     420.577416
siesta:       Edftu   =       0.000000
siesta:       Eso     =       0.000000
siesta:    Ext. field =       0.000000
siesta:   Exch.-corr. =    -109.085370
siesta:  Ion-electron =   -1044.951402
siesta:       Ion-ion =     169.138212
siesta:       Ekinion =       0.000000
siesta:         Total =    -328.426113
siesta:         Fermi =      -0.235136

siesta: Stress tensor (static) (eV/Ang**3):
siesta:     0.000157    0.000000    0.000000
siesta:     0.000000    0.000000   -0.000000
siesta:     0.000000   -0.000000    0.000157

siesta: Cell volume =       8024.024008 Ang**3

siesta: Pressure (static):
siesta:                Solid            Molecule  Units
siesta:          -0.00000114          0.00000000  Ry/Bohr**3
siesta:          -0.00010452          0.00000002  eV/Ang**3
siesta:          -0.16746899          0.00002775  kBar
(Free)E+ p_basis*V_orbitals  =        -326.587193
(Free)Eharris+ p_basis*V_orbitals  =        -326.587192
     spin moment: S , {S} =    0.00000       0.0       0.0   0.00000

siesta: Electric dipole (a.u.)  =    0.000000   -0.000000   -0.000031
siesta: Electric dipole (Debye) =    0.000000   -0.000000   -0.000078

cite: Please see "NH3.bib" for an exhaustive BiBTeX file.
cite: Please clearly indicate Siesta version in published work: master-post-4.1-268
cite: This calculation has made use of the following articles
cite: which are encouraged to be cited in a published work.
        Primary SIESTA paper
          DOI: www.doi.org/10.1088/0953-8984/14/11/302


>> End of run:  19-SEP-2024  12:52:16
Job completed
